# vtk DataFile Version 3.0
d-3__ created by libgimli-v1.1.0
ASCII
DATASET UNSTRUCTURED_GRID
POINTS 16 double
0	0	-0.5
0.99	0	-0.5
0.99	0	0.5
0	0	0.5
0	0.5	-0.5
0.99	0.5	-0.5
0.99	0.5	0.5
0	0.5	0.5
0.55	0.3	-0.4
0.85	0.3	-0.4
0.85	0.1	-0.4
0.55	0.1	-0.4
0.85	0.3	0.4
0.85	0.1	0.4
0.55	0.3	0.4
0.55	0.1	0.4
CELLS 12 60
4	4	5	1	0	
4	5	6	2	1	
4	6	7	3	2	
4	7	4	0	3	
4	0	1	2	3	
4	7	6	5	4	
4	8	9	10	11	
4	9	12	13	10	
4	12	14	15	13	
4	14	8	11	15	
4	11	10	13	15	
4	14	12	9	8	
CELL_TYPES 12
7 7 7 7 7 7 7 7 7 7 7 7 
CELL_DATA 12
SCALARS _Marker double 1
LOOKUP_TABLE default
1 1 1 1 1 1 0 0 0 0 0 0 
POINT_DATA 16
